# vtk DataFile Version 4.2
3D Slicer output. SPACE=LPS
ASCII
DATASET POLYDATA
FIELD FieldData 2
MaterialNames 1 2 string
mtl1
NO_MATERIAL

MaterialLibraries 1 1 string
CEAEE_vtkMRMLModelNodeBI.mtl

POINTS 58 float
0.141986 -0.108684 -47.0391 0.141946 -0.108701 -47.0391 0.131962 -0.112911 -47.0336 
-0.576623 0.248266 -45.0656 -0.985232 1.40661 -43.5521 -0.462347 1.17461 -41.0358 
0.189168 0.118147 -39.76 0.248144 0.119489 -39.6364 -0.0164149 -0.143404 -37.7621 
0.00660818 -0.178158 -37.264 -0.117323 -0.0359205 -36.5193 0.115746 -0.0819695 -33.4473 
0.437491 0.107412 -32.9094 0.895508 0.694271 -31.8564 -0.387013 -0.355284 -28.033 
-0.0132034 0.0792832 -26.2744 0.0319283 0.079671 -23.6874 0.101686 -0.0155432 -21.4062 
0.111673 -0.0267208 -21.3412 0.392161 -0.0712957 -19.8423 0.0139981 -0.666346 -17.6773 
-0.0473977 -0.444052 -14.8833 -0.508146 -0.310595 -13.7413 -0.581607 -0.353526 -13.5981 
0.27119 0.290581 -10.2685 0.118239 -0.0746263 -8.88484 0.0138699 -0.147377 -6.81853 
0.383541 0.789149 -1.80316 0.298389 0.569921 -1.51626 -1.31476 -0.865278 1.26451 
1.27379 0.710046 7.72211 1.49128 0.116494 9.48191 1.36908 0.129135 9.64107 
1.19493 0.129532 10.0406 -0.0211743 -0.0284612 14.4069 -0.0971335 -0.066495 14.9558 
0.0391666 0.0830155 15.9455 -0.0235027 -0.40868 18.7292 0.406927 -0.896205 20.7244 
0.74022 -0.749845 21.1771 0.113203 0.312739 26.0306 -0.127378 0.0294216 28.2721 
-0.0985641 -0.010434 28.3863 -0.0427517 -0.0202021 28.7033 0.327686 0.161255 31.1522 
-0.0926874 0.170517 34.5441 0.105134 -0.341826 36.1674 0.268454 0.31405 38.3606 
0.00248063 0.0808118 39.9831 -0.0354813 0.035437 40.8869 -0.0113896 0.00775015 41.1014 
-0.0317288 0.0766679 43.1212 0.00551154 0.0169423 45.545 -0.0739234 0.00191142 46.4818 
0.0999908 0.146091 47.6229 0.0591078 -0.0758011 48.4521 0.0266012 -0.036067 48.7197 
-0.104399 -0.0179784 49.1954 
LINES 1 59
58 57 56 55 54 53 52 51 50 49 48 47 46 45 44 43 42 41 40 39 38 37 36 35 34 33 32 31 30 29 28 27 26 25 24 23 22 21 20 19 18 17 16 15 14 13 12 11 10 9 8 7 6 5 4 3 2 1 0 

POINT_DATA 58
FIELD FieldData 3
Radius 1 58 double
1.9374487961 1.9374697768 1.9426939736 2.8800610791 4.0131473644 3.8932115748 3.3913373543 3.4279133442 3.498393024 
3.597905093 3.6344156351 4.3843580375 4.5399912205 4.9496509295 4.7296764992 4.509188596 4.708532371 4.7078959819 
4.7161710411 4.9353004813 5.1292280208 5.4001459914 5.4696237415 5.4964761083 5.3322160348 5.1762388164 5.2039052269 
6.2622619353 6.2013448634 6.3388960565 6.2456328816 6.5387820567 6.4438454361 6.1909995668 4.8774693084 4.9417218347 
4.8668354253 5.1279073643 5.8194488101 5.8603927076 4.6899124378 4.2181697809 4.2213757536 4.1808522133 4.5133327381 
3.8608774671 3.8491710537 3.6433277018 3.0881953169 2.9362701685 2.919518448 3.3156324574 2.1091650552 2.0041021706 
1.7010695772 1.300481505 1.1203960496 0.84282283226 
EdgeArray 2 58 int
54 54 217 54 217 217 216 216 57 
57 22 29 29 29 20 20 21 112 
192 196 197 197 193 193 17 17 18 
18 32 32 207 207 211 211 210 200 
200 199 12 199 15 15 189 187 190 
189 190 190 105 105 107 107 180 180 
182 182 162 183 166 166 98 98 169 
169 158 158 159 159 160 160 103 103 
142 142 147 147 146 146 126 126 140 
140 83 83 128 128 133 133 131 131 
156 156 155 155 77 77 123 123 80 
80 81 81 67 67 74 74 72 72 
60 60 65 65 52 52 49 49 
EdgePCoordArray 1 58 double
0 0.996 0 0 0 0.62 0 0 0.56 
0.952 0 0 0 0 0 0 0 0.988 
0.04 0.748 0 0.2 0.136 0 0 0 0 
0 0.884 0 0 0 0 0 0 0 
0 0 0 0 0 0 0 0 0 
0 0 0 0 0 0 0 0 0 
0 0 0 0 
