# vtk DataFile Version 4.2
3D Slicer output. SPACE=RAS
ASCII
DATASET POLYDATA
POINTS 920 float
74.5296 82.7323 14.5601 74.6427 82.4021 14.4984 74.6711 82.3035 14.5155 
74.7033 82.199 14.5277 74.8379 81.8922 14.5619 74.851 81.8699 14.5642 
74.9404 81.67 14.5671 74.9454 81.6583 14.5691 74.9822 81.5893 14.5697 
75.0835 81.4257 14.6178 75.1038 81.4004 14.6238 75.2843 81.2118 14.6763 
75.3549 81.1517 14.6977 75.36 81.1463 14.6995 75.5782 80.9464 14.7697 
75.7671 80.7874 14.8043 75.9321 80.6598 14.8504 76.0526 80.573 14.8621 
76.172 80.502 14.8765 76.197 80.49 14.8796 76.3551 80.4017 14.9094 
76.4466 80.3596 14.9275 76.5631 80.3008 14.9426 76.8583 80.1588 14.9551 
77.0821 80.0541 14.9781 77.1179 80.0334 14.9869 77.1612 80.0165 14.9866 
77.2848 79.9738 15.0075 77.3301 79.9621 15.0172 77.3758 79.9479 15.028 
77.4146 79.9396 15.0373 77.6711 79.8727 15.0744 78.0068 79.7964 15.0862 
78.0566 79.7906 15.0853 78.3878 79.7161 15.0831 78.5217 79.7021 15.0825 
78.8155 79.6379 15.0839 78.916 79.6285 15.0857 79.182 79.5754 15.0816 
79.2476 79.5567 15.0807 79.2847 79.5432 15.0763 79.2922 79.5399 15.0755 
79.5674 79.4563 15.0713 79.7194 79.3915 15.0872 79.7556 79.3729 15.0908 
80.0258 79.2675 15.0997 80.1129 79.2254 15.0897 80.3377 79.1392 15.0733 
80.5055 79.0627 15.1162 80.522 79.0562 15.1129 80.8608 78.8715 15.092 
80.8897 78.8548 15.0923 81.1212 78.7435 15.1187 81.3875 78.6135 15.0785 
81.4076 78.6009 15.0758 81.7229 78.4497 15.0387 81.7398 78.4396 15.0374 
81.8885 78.3728 15.0164 81.9435 78.3416 15.0063 81.9869 78.32 14.9952 
82.0963 78.2781 14.9869 82.2462 78.2229 14.9739 82.3354 78.2015 14.9642 
82.5797 78.1406 15.0162 82.6669 78.1256 15.0285 82.8896 78.0671 15.0557 
83.1131 78.0388 15.0543 83.2288 78.007 15.0618 83.5895 77.965 15.1208 
83.5997 77.9621 15.1226 83.9969 77.9139 15.1412 84.0416 77.9158 15.1428 
84.4253 77.8693 15.1452 84.4489 77.8703 15.1455 84.8156 77.8272 15.1577 
84.8234 77.8251 15.1579 85.1442 77.7782 15.1556 85.2777 77.745 15.1333 
85.4419 77.7156 15.085 85.6645 77.6683 15.0392 85.8302 77.597 15.0138 
85.8504 77.5916 15.0089 85.901 77.5751 14.9947 86.1604 77.4477 14.9357 
86.1605 77.4477 14.9357 86.1785 77.4409 14.9354 86.1789 77.4407 14.9354 
86.264 77.396 14.9336 86.5447 77.2804 14.9243 86.7473 77.1861 14.9262 
86.9046 77.1317 14.932 86.9248 77.1226 14.9334 86.9635 77.1031 14.9304 
87.1758 77.0234 14.9611 87.3261 76.9548 14.9889 87.381 76.9341 14.9885 
87.586 76.8356 15.0116 87.5869 76.8353 15.0116 87.6303 76.8145 15.0099 
87.7042 76.7858 15.0017 87.8237 76.7511 14.9925 87.8814 76.7299 14.9873 
88.1101 76.6715 14.9814 88.1103 76.6715 14.9814 88.1268 76.6654 14.9809 
88.1327 76.6641 14.9808 88.3707 76.6112 14.9755 88.4726 76.5969 14.9694 
88.6477 76.5615 14.9837 88.662 76.5602 14.985 88.9391 76.5306 14.9792 
89.0142 76.5267 14.9779 89.0255 76.5271 14.9777 89.3772 76.5001 14.9703 
89.3773 76.5001 14.9703 89.4274 76.4989 14.9685 89.5924 76.5095 14.9638 
89.8215 76.5022 14.9441 90.0059 76.5094 14.904 90.1554 76.5212 14.8849 
90.5566 76.5632 14.8871 90.5977 76.5709 14.8852 90.7832 76.5833 14.8805 
91.0764 76.6048 14.92 91.2999 76.64 14.882 91.804 76.7383 14.8579 
91.8922 76.7627 14.8435 91.9384 76.7743 14.8438 92.1462 76.8428 14.8505 
92.1474 76.843 14.8506 92.4548 76.9139 14.8686 92.4556 76.9141 14.8687 
92.5541 76.9441 14.8767 92.5543 76.9442 14.8768 92.5726 76.9515 14.8788 
92.7039 77.0188 14.8811 92.704 77.0185 14.881 92.7134 76.9918 14.8725 
92.7843 76.8263 14.8113 92.7844 76.8262 14.8113 92.7913 76.8038 14.802 
100.839 81.5164 5.73312 100.827 81.5288 5.72124 100.787 81.5638 5.67267 
100.783 81.5681 5.66933 100.645 81.6598 5.58689 100.571 81.7297 5.53735 
100.486 81.8412 5.47059 100.442 81.8809 5.44075 100.315 82.0294 5.36296 
100.276 82.0938 5.33443 100.074 82.3383 5.34403 100.031 82.3902 5.33444 
99.8749 82.5419 5.33404 99.8016 82.6111 5.30694 99.7718 82.642 5.30224 
99.5566 82.8344 5.30947 99.3918 82.9761 5.32239 99.1879 83.1956 5.36475 
99.0434 83.3401 5.38407 98.8121 83.6417 5.43793 98.7314 83.7145 5.46103 
98.4541 83.9763 5.62858 98.434 83.9911 5.63849 98.0539 84.4229 5.87252 
97.897 84.5585 5.95812 97.8406 84.6022 5.97766 97.6102 84.7712 6.12411 
97.5602 84.8247 6.16742 97.5335 84.8469 6.19578 97.1397 85.1463 6.53198 
97.0636 85.184 6.60424 96.8224 85.3059 6.79184 96.7012 85.3802 6.91072 
96.552 85.4473 7.0702 96.5258 85.4634 7.10428 96.405 85.517 7.22722 
96.3951 85.521 7.24071 96.3309 85.536 7.33746 96.2001 85.5671 7.54129 
96.187 85.5707 7.56995 96.0095 85.5774 7.86373 95.8811 85.5355 8.05666 
95.829 85.5282 8.14909 95.6324 85.4927 8.45935 95.4962 85.4604 8.69804 
95.3739 85.4207 8.88911 95.3571 85.4142 8.91926 95.1275 85.3209 9.28953 
94.9896 85.248 9.53628 94.9504 85.2266 9.59771 94.5878 84.7781 10.2548 
94.5103 84.7503 10.3693 94.4646 84.7296 10.4408 94.4584 84.725 10.45 
94.4326 84.7053 10.4889 94.3275 84.6131 10.6618 93.8679 84.2504 11.2532 
93.8671 84.2492 11.254 93.8594 84.2364 11.2633 93.7712 84.0822 11.4064 
93.7598 84.0627 11.4233 93.5956 83.7747 11.6329 93.4053 83.469 11.8992 
93.4048 83.4682 11.8998 93.386 83.4405 11.92 93.3628 83.3832 11.9727 
93.2045 83.0773 12.2647 93.1912 83.03 12.3262 93.191 82.9914 12.3455 
93.18 82.8167 12.4422 93.1816 82.6238 12.5756 93.2022 82.4536 12.6801 
93.2048 82.3554 12.7445 93.2324 82.1261 12.8882 93.2712 81.835 13.1051 
93.2713 81.8347 13.1053 93.3268 81.1282 13.4364 93.3245 80.417 13.6322 
93.3207 80.1235 13.7601 93.342 79.8264 13.9041 93.3404 79.7968 13.9101 
93.2913 79.1903 14.0824 93.2874 79.1648 14.0894 93.2835 79.1247 14.0993 
93.2185 78.5928 14.2878 93.1759 78.401 14.342 93.0601 77.9799 14.4896 
93.0562 77.9603 14.4964 92.9711 77.6991 14.551 92.8566 77.4043 14.6339 
92.7289 77.1416 14.7108 92.7026 77.0975 14.7247 92.6951 77.0816 14.735 
92.7226 76.9942 14.7471 92.7843 76.8263 14.8113 92.7844 76.8262 14.8113 
92.7913 76.8038 14.802 94.5576 115.484 4.92782 94.6467 115.352 4.8555 
94.7137 115.255 4.87041 94.7683 115.181 4.90186 94.8113 115.09 4.93352 
94.8633 114.908 4.91927 94.8881 114.838 4.91641 94.9544 114.552 4.9128 
94.957 114.526 4.91321 94.962 114.5 4.90599 95.0492 114.171 4.89155 
95.0557 114.125 4.88565 95.0707 114.042 4.85648 95.1254 113.766 4.83969 
95.1282 113.721 4.82946 95.1257 113.57 4.79713 95.1292 113.531 4.79939 
95.128 113.274 4.79826 95.1096 113.106 4.79051 95.1091 113.058 4.78877 
95.0902 112.839 4.79359 95.0835 112.783 4.79351 95.0541 112.626 4.80709 
95.0496 112.539 4.81207 95.0416 112.45 4.81578 95.0094 112.245 4.8312 
94.9823 112.107 4.83566 94.9466 111.969 4.85512 94.9013 111.705 4.87941 
94.8085 111.361 4.88993 94.7958 111.327 4.89052 94.7295 111.054 4.87699 
94.6777 110.892 4.87751 94.6624 110.847 4.8758 94.6336 110.733 4.86998 
94.5555 110.492 4.86523 94.5382 110.424 4.86496 94.5334 110.406 4.86457 
94.4995 110.306 4.87161 94.4735 110.214 4.87364 94.4699 110.194 4.87413 
94.4592 110.11 4.87771 94.4511 110.056 4.8791 94.4509 110.043 4.87599 
94.4342 109.808 4.88908 94.4315 109.667 4.88891 94.4286 109.477 4.89329 
94.4251 109.391 4.89688 94.4285 109.29 4.90032 94.4269 109.198 4.90787 
94.4206 109.069 4.91874 94.4242 108.897 4.94356 94.4214 108.841 4.94786 
94.4258 108.534 4.93202 94.4242 108.5 4.93328 94.4292 108.162 4.92406 
94.4276 108.134 4.92325 94.4332 107.775 4.92832 94.4313 107.743 4.92738 
94.4375 107.369 4.93397 94.435 107.328 4.93217 94.4418 106.938 4.94242 
94.4388 106.888 4.94013 94.4461 106.504 4.93931 94.4427 106.417 4.94079 
94.4448 106.367 4.94129 94.4523 106.021 4.94476 94.4483 105.907 4.9491 
94.4578 105.69 4.95566 94.4635 105.483 4.95254 94.4599 105.355 4.95724 
94.4615 105.295 4.95782 94.4771 104.902 4.92833 94.4754 104.773 4.93563 
94.4872 104.519 4.94667 94.4859 104.261 4.96689 94.4809 104.206 4.9676 
94.4808 104.201 4.96759 94.4808 104.097 4.96725 94.4782 103.958 4.9582 
94.4749 103.788 4.95854 94.4753 103.686 4.9521 94.4771 103.497 4.95182 
94.4626 103.343 4.94211 94.4754 103.103 4.94192 94.4823 103.017 4.93658 
94.5267 102.655 4.93488 94.5272 102.649 4.93454 94.5595 102.271 4.93447 
94.5646 102.218 4.93767 94.6041 101.887 4.93805 94.6158 101.632 4.95414 
94.6199 101.509 4.95449 94.6229 101.4 4.96132 94.628 101.303 4.96763 
94.6158 101.133 4.97692 94.616 101.118 4.97877 94.6123 100.947 4.98905 
94.5801 100.705 5.03418 94.5783 100.693 5.03708 94.5672 100.334 5.14559 
94.5652 100.319 5.15006 94.5592 100.006 5.26627 94.5644 99.8649 5.32096 
94.562 99.7965 5.3486 94.5585 99.6933 5.38366 94.5786 99.451 5.5076 
94.5874 99.223 5.6295 94.5929 99.1669 5.65853 94.5946 99.1021 5.68824 
94.6347 98.9213 5.78195 94.6347 98.9212 5.78199 94.6431 98.8956 5.79312 
94.7366 98.5424 5.96829 94.7708 98.4181 6.04359 94.8945 97.9877 6.13272 
94.968 97.6011 6.27315 95.0313 97.2377 6.38412 95.0841 96.9019 6.65468 
95.1285 96.5736 6.81198 95.1566 96.2549 6.82902 95.1582 96.0634 6.8534 
95.1503 95.85 6.93063 95.1172 95.6274 7.04326 95.1077 95.4059 7.17143 
95.0744 95.2039 7.22827 95.0175 94.9629 7.30485 94.9887 94.7924 7.34371 
94.8664 94.3056 7.45236 94.8612 94.2906 7.45557 94.7308 93.7979 7.55016 
94.6821 93.647 7.56496 94.6291 93.4966 7.58851 94.5836 93.2446 7.61926 
94.5546 93.1162 7.62686 94.4563 92.7424 7.67891 94.4106 92.5744 7.67087 
94.3021 92.2598 7.73099 94.2757 92.1815 7.72496 94.2127 91.948 7.71364 
94.1534 91.7669 7.74674 94.1531 91.7661 7.74701 94.1177 91.6708 7.78122 
93.9014 91.1602 7.94265 93.8585 91.0256 7.96239 93.724 90.654 7.99292 
93.564 90.2272 8.07596 93.4343 89.9755 8.17662 93.3292 89.7287 8.24776 
93.3322 89.7214 8.24812 93.3449 89.6621 8.23894 93.35 89.6431 8.23518 
93.3651 89.5923 8.22721 93.5013 89.2388 8.2365 93.5118 89.2023 8.23584 
93.5427 89.1489 8.25124 93.5659 89.0883 8.25822 93.6252 88.8194 8.26589 
93.6646 88.5571 8.40873 93.7423 87.9374 8.79851 93.7455 87.91 8.81411 
93.7453 87.8759 8.83395 93.743 87.4626 9.10724 93.7365 87.1664 9.30422 
93.7336 87.0689 9.37723 93.7515 86.4033 9.82499 93.756 86.2458 9.94291 
93.7543 85.6379 10.3492 93.7529 85.4639 10.4781 93.6213 84.7888 10.925 
93.6113 84.7486 10.9544 93.3825 83.9928 11.4374 93.347 83.89 11.495 
[...]
POINT_DATA 920
FIELD FieldData 3
Radius 1 920 double
1.2220245284 1.3272441011 1.3588027299 1.3921291346 1.5122601166 1.5211272663 1.589126325 1.5932549061 1.6141403307 
1.6470840383 1.6508283345 1.6821971832 1.6947633237 1.695314731 1.7209867206 1.7417285632 1.7582791124 1.7656260975 
1.7706316399 1.7709739074 1.7702822888 1.7717130585 1.7723673349 1.7709284475 1.7736280898 1.7722413776 1.7693528254 
1.7560651331 1.7499537434 1.7422889833 1.7357825139 1.6910766917 1.6401346106 1.6330396354 1.5916091938 1.5780920604 
1.5545781702 1.5473373462 1.5324388535 1.5299274973 1.5270796395 1.5261771993 1.4877746483 1.4745005909 1.4708046387 
1.4470482052 1.4415626936 1.4313455604 1.425436152 1.4248967956 1.4129872737 1.4107131912 1.3952421475 1.3842757282 
1.3837150377 1.3829202521 1.383555145 1.3847771697 1.3843294267 1.3827873163 1.3761124374 1.3584394756 1.3465850726 
1.3040903848 1.2877054435 1.2494548091 1.2182677102 1.2062641885 1.1723721461 1.1717661357 1.1490213147 1.1482516667 
1.1427819685 1.1434275896 1.1528432134 1.1529258946 1.169451884 1.1804453024 1.1971580394 1.2158114942 1.2282973693 
1.2285764504 1.2277066383 1.2271904901 1.2271939931 1.2280662367 1.2280550481 1.2252690793 1.237802851 1.2467124253 
1.2580260194 1.2594285726 1.262156981 1.2722926207 1.2879381186 1.2913371849 1.3091977257 1.3092592452 1.3100073733 
1.3086698223 1.3049472191 1.3015010832 1.2928534574 1.2928465875 1.2922809658 1.2919537428 1.2786466738 1.2784224606 
1.2736591953 1.2745885237 1.2870491698 1.2973878049 1.2983184821 1.336744298 1.3367854003 1.3470198771 1.3797289166 
1.4363984968 1.4919164296 1.5464814298 1.7210979294 1.7417362242 1.829402258 1.9730003339 2.1023079088 2.4238362196 
2.4840433777 2.5159592588 2.6591341291 2.659962817 2.8663061139 2.8668420798 2.933301846 2.9334420945 2.9449892255 
3.0236999453 3.023390233 2.9978905912 2.8288994497 2.8288053358 2.8053709679 1.0018312904 1.0180702986 1.0702247844 
1.0745851758 1.1766931081 1.2349862076 1.3063942868 1.3333524544 1.4037207931 1.4277591375 1.4705004309 1.4748491706 
1.466105623 1.4603996374 1.4556416626 1.41382736 1.3698975499 1.3288588456 1.2911607645 1.2559492651 1.2493199579 
1.249694203 1.2514027538 1.3338116596 1.4047049298 1.4318344261 1.5514881691 1.5807141599 1.5947826748 1.8448159145 
1.8977844343 2.0692673882 2.1691013133 2.2886235743 2.3113444098 2.3968707022 2.4031533186 2.4426015334 2.5382604312 
2.5479741439 2.6276653903 2.6692799583 2.6938119541 2.7920820622 2.871360459 2.9439113378 2.9565432954 3.1060865143 
3.2133631908 3.2435890509 3.5139976989 3.5915607305 3.6380080736 3.6432983807 3.6656995844 3.7615087608 4.1394947734 
4.1398298859 4.1432049078 4.1806044828 4.1857280716 4.265122325 4.363406885 4.3637202808 4.3745995914 4.3869266461 
4.4719218423 4.4776368534 4.467320571 4.4197882771 4.3622576844 4.3018356116 4.2616301168 4.1709351933 4.0526884641 
4.0525787639 3.7616621089 3.5258077982 3.4419855642 3.3659350934 3.3584179708 3.2280843104 3.2235394928 3.2150311093 
3.1187799131 3.0937069992 3.0577192488 3.0563375426 3.0263932727 3.0050142149 2.9915004305 2.9877789818 2.9880431531 
2.9265659195 2.8288994497 2.8288053358 2.8053709679 0.78016797782 0.87021766657 0.94448866572 0.99540144058 1.0420877986 
1.1148129693 1.1349950978 1.2260277044 1.2338835787 1.2415124679 1.3491956908 1.3642897958 1.388252487 1.4666369909 
1.4771119835 1.5100046238 1.5163699243 1.5556340178 1.5869845417 1.5935166706 1.6274750774 1.637326912 1.6673007861 
1.68010026 1.692198781 1.728591257 1.7574024832 1.790922574 1.8406155352 1.9306603403 1.9401812613 2.0048040671 
2.0518241671 2.0645747602 2.0954380886 2.1647102247 2.1849397155 2.1901363515 2.2184683773 2.2414158778 2.2451212022 
2.2589960597 2.2668628902 2.2676391367 2.2789348957 2.2829693564 2.2834350432 2.2835472005 2.2833592275 2.2837239215 
2.2837450619 2.2852483555 2.2845811944 2.2829381464 2.2822201423 2.2816527399 2.2817363487 2.2845187419 2.2852108965 
2.2951762811 2.2969741929 2.3181751629 2.3219372047 2.3557233677 2.3658555778 2.372422271 2.4195777517 2.4383237021 
2.4810188381 2.5218111298 2.5519987914 2.5664483148 2.6719225532 2.7125435581 2.7938098607 2.88084081 2.8921304247 
2.8924626524 2.8984791133 2.9049297763 2.9105477253 2.91194947 2.9122737993 2.9140783847 2.9142840766 2.9137238562 
2.9172628821 2.9173387679 2.9249098793 2.9266039551 2.9399304502 2.9587871712 2.9682301585 2.9760458983 2.9831853304 
3.0027825952 3.0042758951 3.0154292942 3.0086199788 3.0080503295 2.970845379 2.9698338296 2.931408934 2.9172588112 
2.9096740196 2.9014108883 2.8688917955 2.8418344226 2.834137785 2.8235596401 2.7663295373 2.7662924681 2.7570622362 
2.6397459647 2.6038959572 2.4861390097 2.4148298434 2.3611592598 2.3102792254 2.2849342407 2.2713334096 2.2728107944 
2.2694217189 2.2740874148 2.2581755172 2.240298404 2.2281394619 2.2226615122 2.2465543959 2.2478376782 2.3114846414 
2.3451114962 2.3810347875 2.4264451541 2.4563352847 2.5618024837 2.6198764061 2.754138654 2.7881336833 2.886593837 
2.9712225225 2.9716325969 3.0224818161 3.3173636709 3.3979159098 3.6317588403 3.9130714972 4.1085659094 4.2917782652 
4.2919279263 4.3043295596 4.3079460729 4.3156978965 4.3272759103 4.3316181313 4.3216855839 4.3214185788 4.3516922829 
4.2427114734 4.0107469396 4.0021761369 3.990897958 3.8746306618 3.7923062501 3.771686573 3.6979576526 3.6963818584 
3.739981892 3.769524188 3.9245396068 3.9361628859 4.2044330186 4.2451451991 4.4786840128 4.5045180125 4.5071271144 
4.4571523705 4.4548170613 4.4269658597 4.4260867222 4.351813551 4.2707165056 4.2486988454 4.0526884641 4.0525787639 
3.7616621089 3.5258077982 3.4419855642 3.3659350934 3.3584179708 3.2280843104 3.2235394928 3.2150311093 3.1187799131 
3.0937069992 3.0577192488 3.0563375426 3.0263932727 3.0050142149 2.9915004305 2.9877789818 2.9880431531 2.9265659195 
2.8288994497 2.8288053358 2.8053709679 3.7941192541 3.8263493307 3.8600769972 3.9089330078 3.9093944016 3.9560686981 
3.9904024844 4.0291516222 4.0819580976 4.114163024 4.1391828263 4.1552734709 4.1722072553 4.0299810359 4.0253000865 
3.8204590642 3.8001901711 3.7115329705 3.706008861 3.73025959 3.7410694981 3.7695522599 3.7880090309 3.9256717801 
3.9372973282 4.2048744436 4.2456667591 4.252123475 4.4725272838 4.5045180125 4.5071271144 4.4571523705 4.4548170613 
4.4269658597 4.4260867222 4.351813551 4.2707165056 4.2486988454 4.0526884641 4.0525787639 3.7616621089 3.5258077982 
3.4419855642 3.3659350934 3.3584179708 3.2280843104 3.2235394928 3.2150311093 3.1187799131 3.0937069992 3.0577192488 
3.0563375426 3.0263932727 3.0050142149 2.9915004305 2.9877789818 2.9880431531 2.9265659195 2.8288994497 2.8288053358 
2.8053709679 2.111164229 2.101398285 2.0975777983 2.0963658284 2.0661362621 2.0659238617 2.060852253 2.0523102276 
2.0563871666 2.0561838753 2.0548789199 2.063987848 2.0683011539 2.0708852878 2.0709731707 2.0787146748 2.0831151076 
2.0853108691 2.0896044916 2.1133175597 2.1139859652 2.1289647428 2.1437578326 2.1437588477 2.1440116036 2.1618426917 
2.1670946396 2.1712347829 2.173607435 2.191732412 2.1948073511 2.2266421841 2.2640806889 2.271499766 2.2729067495 
2.2735825786 2.2738937986 2.2989053366 2.328964408 2.3643844507 2.3747039144 2.3769121862 2.4147280764 2.4364033416 
2.4725306129 2.5000713584 2.5191989755 2.551717249 2.5716338254 2.6567373304 2.6628173723 2.7324287714 2.735823861 
2.7928645348 2.8355400282 2.8571316662 2.8789133045 2.911450525 2.9412608397 2.9858986688 3.0367172343 3.0407942141 
3.1151622988 3.1319414972 3.2154994169 3.2342582399 3.3186912644 3.3899148538 3.5490510422 3.6065467993 3.6796020674 
3.6834858934 3.7763166493 4.0019081446 4.0549495204 4.0431663813 4.0387890682 4.0225680924 4.0291082566 3.9776093901 
3.9243338833 3.8435473284 3.8162400687 3.8151777188 3.7259439005 3.6633251364 3.6575295822 3.5916306117 3.5849994443 
3.5709670333 3.5603735117 3.5502555183 3.509953237 3.5094769728 3.4653959104 3.4504056695 3.4330881333 3.3991519822 
3.3857378687 3.3791584129 3.3781766563 3.3615623538 3.3024406251 3.2236186706 3.2101381065 3.3009502664 3.4619339009 
3.5750990247 3.7574915135 3.7822887226 3.7828237629 3.9160488099 3.8605466924 3.7650748697 3.6631917281 3.6567561255 
3.639597239 3.6259100735 3.6286325657 3.6395157415 3.6106608308 3.602925195 3.6003347763 3.6282680194 3.6347028271 
3.6388241572 3.6464619721 3.6833675939 3.7102571978 3.7665275177 3.7666427659 3.7953395664 3.7974509701 3.8117914725 
3.820153803 3.8213513889 3.8682589642 3.958820352 3.9758213461 3.9759149459 3.9992213142 3.9995816235 4.0892986197 
4.1418913969 4.1420651928 4.1853403768 4.2083768796 4.3552937591 4.3684488969 4.3872852689 4.4572445823 4.4705886242 
4.5071271144 4.4571523705 4.4548170613 4.4269658597 4.4260867222 4.351813551 4.2707165056 4.2486988454 4.0526884641 
4.0525787639 3.7616621089 3.5258077982 3.4419855642 3.3659350934 3.3584179708 3.2280843104 3.2235394928 3.2150311093 
3.1187799131 3.0937069992 3.0577192488 3.0563375426 3.0263932727 3.0050142149 2.9915004305 2.9877789818 2.9880431531 
2.9265659195 2.8288994497 2.8288053358 2.8053709679 1.3713474427 1.4420844234 1.500703846 1.5080735628 1.5178094579 
1.5384804523 1.5469556516 1.5482323272 1.5646685345 1.5730928 1.5731012881 1.574779545 1.5762809788 1.57592255 
1.5713641259 1.5739029273 1.5761331667 1.5757229494 1.5968208498 1.6060467678 1.6245882996 1.6277788584 1.642858044 
1.6470599514 1.6470683891 1.6481146562 1.6522006749 1.6517973556 1.6449394234 1.6439581401 1.6238832398 1.6126323952 
1.6092327637 1.5814037032 1.5778696018 1.5721689815 1.5700816545 1.5680057007 1.5606055153 1.5538786133 1.5511182995 
1.5247824642 1.5245707686 1.4885315981 1.4724660929 1.4730766904 1.4747655711 1.4831089018 1.4896233408 1.4948349149 
1.5111972515 1.5240852132 1.5261129034 1.541327586 1.5467641387 1.5599428022 1.5656012361 1.5667616755 1.5663465147 
1.5677212628 1.5678351609 1.5782277404 1.578232291 1.5787965681 1.5906601436 1.6046172673 1.6365417324 1.6395551633 
1.6510603219 1.7050630845 1.725405107 1.7341432344 1.7508412732 1.7639834082 1.7640018016 1.7685817592 1.7687546792 
1.7901967632 1.7905359722 1.7986769872 1.8052262806 1.8374872091 1.8434495591 1.8714612955 1.9261774973 1.9611527611 
1.9794416214 2.0278055662 2.0532491671 2.1726972602 2.3714300979 2.5158594825 2.6564818481 2.7689912761 2.7616016603 
2.745961721 2.7239021308 2.7202178258 2.6958333016 2.6980752061 2.7000442699 2.696003317 2.712478675 2.7124860744 
2.7143285322 2.7676171768 2.8772444448 2.8883490764 2.984768947 3.0032241574 3.0604766274 3.2475836779 3.2476743746 
3.2589207648 3.3127493481 3.3503922567 3.398353277 3.4129447222 3.446861242 3.4787343248 3.4968290232 3.5250451787 
3.5797758267 3.5805006988 3.5908884008 3.588457307 3.6164338328 3.6162565848 3.6162815096 3.6132850026 3.6071251604 
3.6031044066 3.5763432253 3.5416933539 3.4899004631 3.4898822016 3.4853350847 3.4531661427 3.4068265388 3.3940201337 
3.3236873144 3.3198895268 3.2991216392 3.289388953 3.2893873561 3.2889897104 3.2573009618 3.2507759684 3.1939903092 
3.1806932195 3.1880143629 3.1886369553 3.2698028191 3.3097315903 3.3663873906 3.4619339009 3.5750990247 3.7574915135 
3.7822887226 3.7828237629 3.9160488099 3.8605466924 3.7650748697 3.6631917281 3.6567561255 3.639597239 3.6259100735 
3.6286325657 3.6395157415 3.6106608308 3.602925195 3.6003347763 3.6282680194 3.6347028271 3.6388241572 3.6464619721 
3.6833675939 3.7102571978 3.7665275177 3.7666427659 3.7953395664 3.7974509701 3.8117914725 3.820153803 3.8213513889 
3.8682589642 3.958820352 3.9758213461 3.9759149459 3.9992213142 3.9995816235 4.0892986197 4.1418913969 4.1420651928 
4.1853403768 4.2083768796 4.3552937591 4.3684488969 4.3872852689 4.4572445823 4.4705886242 4.5071271144 4.4571523705 
4.4548170613 4.4269658597 4.4260867222 4.351813551 4.2707165056 4.2486988454 4.0526884641 4.0525787639 3.7616621089 
3.5258077982 3.4419855642 3.3659350934 3.3584179708 3.2280843104 3.2235394928 3.2150311093 3.1187799131 3.0937069992 
3.0577192488 3.0563375426 3.0263932727 3.0050142149 2.9915004305 2.9877789818 2.9880431531 2.9265659195 2.8288994497 
2.8288053358 2.8053709679 
EdgeArray 2 920 int
37033 37033 36915 36915 37123 35402 37123 36827 36351 
36355 37091 36355 37091 37307 37307 37307 37110 37110 
36598 36598 36604 36604 6809 6809 36347 37120 37092 
37120 37094 37094 37105 37105 37108 37108 35734 37097 
36930 35379 35377 36930 519 37093 36931 519 37098 
37098 37128 37128 50543 7669 36947 36947 50548 50545 
50546 50545 50546 50541 48164 9582 48163 48164 48154 
48154 50551 6203 9157 35097 9394 35111 6577 48168 
9158 36961 36729 48170 2907 50572 49941 36970 48173 
49941 39429 48173 36974 36746 48177 36742 36742 36719 
9524 9524 48183 48184 48179 50280 36756 36756 50291 
50275 49947 49947 9401 9401 35123 35123 49952 34917 
47916 34917 36511 47923 36511 47917 47701 36519 47701 
34922 34922 34756 49554 49554 49562 49562 49560 49560 
6705 6705 47705 49572 34617 49571 49566 36236 36237 
49567 36242 47721 36242 49115 47724 34770 36214 47726 
9255 9255 36257 47717 47732 6603 47732 6471 6533 
6533 34603 9056 47715 47715 36290 36290 47741 47741 
36291 49172 49171 9114 9187 9187 34776 9187 34776 
34776 9061 34776 9061 9061 35909 35909 35943 9101 
35944 35941 35948 35941 35948 34616 35942 35956 35960 
35960 35949 6474 35963 35970 34620 35970 34488 47400 
34488 48722 48722 48724 48723 48724 47409 47409 48713 
47409 48713 48713 9335 48713 9335 9335 6014 6014 
35609 6063 35609 34493 34493 34493 47416 47416 8997 
6064 48751 48751 48750 48751 48750 48750 9031 9031 
47422 47422 47403 47403 9272 47418 35680 9272 35680 
34523 34521 34494 34494 34500 501 34500 48759 34490 
34538 48759 34538 34538 34389 34389 34430 34389 34430 
34430 48776 34430 48776 48776 48372 48776 48372 48372 
9036 9036 34714 9036 34714 34714 34716 34716 34552 
34716 34552 34552 22728 22728 9945 22747 22195 22195 
22732 23088 3126 22188 22187 23070 6773 3205 6773 
22192 23330 23333 22411 22156 23609 23609 22398 22398 
23587 23587 22657 23785 23790 23785 23789 23789 23768 
23768 23772 23772 3292 22973 10268 10268 3415 3466 
10267 10376 3281 10373 3464 3280 23294 23953 23294 
23763 23763 23784 23784 24080 24080 23770 23770 4083 
24054 4083 24057 24054 23253 24058 23942 23255 23941 
23943 23923 23697 23925 23697 23925 23925 23948 23948 
23950 23950 22412 22412 23726 23726 23707 23705 3401 
23705 22683 3401 22709 3109 22709 23513 23513 3220 
22645 23516 22623 23516 37359 37359 37361 37361 37353 
37362 37353 37353 23468 23468 37358 37358 37188 6955 
22701 37189 37191 37189 7320 7043 7320 37184 37151 
37151 38277 38277 37156 38277 37156 37156 4063 36799 
38275 38254 38253 6130 5394 38253 36584 5394 34788 
36787 36788 36783 36772 36782 49980 36782 9217 9217 
9273 35940 36331 36331 6447 6447 9108 9108 49218 
49218 49215 49227 6488 6488 49216 6660 49231 35370 
35346 35346 34402 6112 6035 34882 34700 34882 34541 
34545 34691 34546 34698 6558 6558 8967 8967 8967 
34566 34688 34716 34716 34552 34716 34552 34552 2838 
2838 21620 21620 21665 21665 21621 21621 2788 2788 
34249 34249 2830 21615 21564 21563 21350 21563 5965 
21350 21430 21430 21424 21261 21492 21492 21493 21493 
21426 21198 21423 21423 21420 21422 21329 21329 21335 
21333 21335 5873 5873 21269 21269 21265 21260 21260 
21267 21102 21267 21266 21194 21266 5835 21194 21171 
21171 21176 21176 21049 21049 33614 2756 2718 2772 
2772 21098 33731 21098 33485 21085 33724 33726 33724 
21090 20910 21090 21083 21091 5837 20953 5837 20965 
20835 20965 20836 20836 20832 20832 20671 20671 20753 
20753 20600 20664 20534 20600 20530 20601 20597 20530 
20597 20596 5735 20591 2496 2632 20342 20342 18766 
18988 20340 20340 2547 5606 19727 19727 19728 31809 
20252 20252 5298 20117 20110 20110 31485 20024 20094 
2541 5138 19940 19934 5138 2404 19934 19933 5399 
19415 5399 19415 31162 19931 31162 5317 19931 19479 
19479 4825 4825 30500 30500 30802 30802 30798 30798 
30490 30799 30490 30490 19213 5320 30087 30087 30098 
4886 18938 30093 2366 2366 29293 29293 18700 29667 
18431 18431 18701 4534 4893 4893 29249 18699 4975 
4975 28251 4533 18262 2161 4973 18262 4973 4973 
18267 18267 4812 28920 27688 27688 27916 4993 4993 
28922 28359 28354 28021 28229 28577 4703 18316 28349 
18316 28246 27901 28247 28223 28223 28027 28027 16278 
16278 27712 27900 27713 27713 28016 27713 28016 28016 
16503 16503 27700 27700 27047 27047 27459 27459 48 
48 27269 27269 27053 27053 27076 27076 27070 27070 
3977 26859 26853 26853 26587 26587 25940 26570 25939 
25939 25611 26279 25167 25167 26575 26575 15937 3835 
4162 3835 25657 25638 25623 25928 25928 25180 25310 
25180 25906 25310 25906 25906 25669 25929 25907 25905 
25907 25907 1596 25907 1596 1596 25315 25923 25315 
26266 21927 25918 21927 25311 7767 25176 25903 25901 
38591 25901 26271 38591 38591 25312 25312 25312 39553 
23198 23198 39566 39566 25179 25179 24802 7650 7650 
7235 110 39212 7318 39212 39211 39211 7316 7316 
39202 39214 39214 39213 39213 7232 7232 7241 7241 
6819 38581 38598 38598 7411 37185 38592 38594 37184 
7135 7040 7040 2878 37017 37158 37158 38282 38282 
6195 37157 6195 34763 5394 38253 36584 5394 34788 
36787 36783 36783 36782 36782 9217 9217 9273 35940 
36331 36331 6447 6447 9108 9108 49218 49218 49215 
49227 6488 6488 49216 6660 49231 35370 35346 35346 
34402 6112 6035 34882 34700 34882 34541 34545 34691 
34546 34698 6558 6558 8967 8967 8967 34566 34688 
34716 34716 34552 34716 34552 34552 13559 13559 13557 
13557 12982 782 12980 12980 25035 25035 25188 25038 
10733 12398 10733 7153 24029 25015 10580 7413 40063 
7413 40062 39219 40064 40064 24234 24234 7316 39216 
39223 39214 39221 39213 6761 7232 7241 38971 6819 
7241 6819 38581 38598 37509 38598 37185 7411 37185 
38592 38594 37184 7135 7040 7525 37017 7040 2878 
37017 37158 37158 38282 38282 6195 37157 6195 34763 
5394 38253 36584 5394 34788 36787 36783 36783 36782 
36782 9217 9217 9273 35940 36331 36331 6447 6447 
9108 9108 49218 49218 49215 49227 6488 6488 49216 
6660 49231 35370 35346 35346 34402 6112 6035 34882 
34700 34882 34541 34545 34691 34546 34698 6558 6558 
8967 8967 8967 34566 34688 34716 34716 34552 34716 
34552 34552 31976 31976 31975 30594 31658 31658 30968 
31657 5478 30968 30595 5478 5327 30986 30986 30990 
30984 30218 30218 30610 30610 31361 30215 30215 30616 
30616 30614 30614 30611 5557 30631 4238 29384 4238 
31041 29384 8007 5048 5254 30642 30642 30643 29837 
30643 29394 29394 29832 29394 29832 29832 5152 30275 
30275 30278 30278 30278 5190 5190 30270 30268 30273 
30269 29866 29866 28734 28734 2241 4845 4845 4364 
29068 4364 29068 29068 29433 29433 29110 29110 29107 
2111 2111 18418 18418 28772 28773 28773 8151 4138 
4318 28439 28441 4455 4663 4455 28076 28081 27758 
28431 27786 27786 27534 27534 27757 27757 27793 17764 
27794 27794 27788 27792 4480 27792 27553 27553 27548 
27552 27344 27344 27369 27369 27347 27347 27343 27342 
4430 4430 27338 26981 1501 27170 27170 26946 27173 
27173 27157 27157 26944 26944 4291 26538 26538 4254 
4254 4254 26950 26526 26968 26968 26974 26974 42107 
42104 42105 8058 41578 41578 41079 41079 39741 39741 
6709 6709 39771 39771 39769 25787 39770 39764 4223 
4223 6708 26181 7466 26181 39379 39373 39378 39375 
26191 26191 39387 4146 39385 24521 39061 39061 39058 
39062 7280 7280 24526 36735 36734 25825 24357 24357 
23449 3300 23441 23449 3422 23441 24116 24117 37956 
37956 6854 6854 4155 4155 24203 24203 24371 24371 
25582 7049 25603 25589 25589 25589 7028 25589 7028 
7028 7222 7222 39530 39530 38937 38139 38126 39179 
39173 39174 39161 39163 39165 39164 37959 37957 23660 
23669 23668 23668 6954 6954 38568 38568 37841 38943 
37848 37841 4058 37848 4058 4058 38567 38567 37685 
37685 6456 37685 6456 6456 38575 37692 38575 38575 
38570 38576 38570 38572 38572 38572 37494 37494 38563 
38563 38562 38563 38562 38562 37327 38562 37327 37327 
37326 37326 22646 37326 22646 22646 7516 7516 7519 
7519 37163 38268 38269 38269 3202 37164 6815 38283 
38282 38282 6195 37157 6195 34763 5394 38253 36584 
5394 34788 36787 36783 36783 36782 36782 9217 9217 
9273 35940 36331 36331 6447 6447 9108 9108 49218 
49218 49215 49227 6488 6488 49216 6660 49231 35370 