# vtk DataFile Version 4.2
3D Slicer output. SPACE=RAS
ASCII
DATASET POLYDATA
POINTS 1114 float
-72.7491 -92.3728 4.8934 -72.7522 -92.3734 4.89405 -72.8587 -92.3812 4.90673 
-72.9307 -92.3679 4.90484 -72.9701 -92.3584 4.90361 -73.0189 -92.3473 4.89419 
-73.0916 -92.3315 4.90313 -73.1096 -92.3282 4.90363 -73.3491 -92.3145 4.90288 
-73.3555 -92.3136 4.90297 -73.6359 -92.2957 4.91684 -73.6638 -92.2962 4.91715 
-73.9722 -92.2789 4.8979 -73.9887 -92.2791 4.8991 -74.2659 -92.2608 4.90558 
-74.3035 -92.2564 4.90594 -74.3486 -92.2541 4.90998 -74.5412 -92.2366 4.91936 
-74.5516 -92.2352 4.91949 -74.6616 -92.2225 4.92469 -74.6827 -92.2213 4.92518 
-74.8005 -92.2108 4.92934 -75.0289 -92.1773 4.90852 -75.0587 -92.1707 4.90602 
-75.1613 -92.1516 4.89445 -75.2887 -92.1341 4.88916 -75.5249 -92.0845 4.87946 
-75.5716 -92.0759 4.87995 -75.6572 -92.0543 4.88295 -75.7188 -92.0424 4.88451 
-75.883 -92.0012 4.88874 -76.0903 -91.9409 4.8929 -76.098 -91.9382 4.89289 
-76.1136 -91.933 4.89477 -76.4231 -91.8481 4.89984 -76.4232 -91.8481 4.89984 
-76.4482 -91.8419 4.89881 -76.4503 -91.8416 4.89874 -76.5741 -91.819 4.89405 
-76.6523 -91.8098 4.89133 -76.6651 -91.8088 4.89206 -76.8602 -91.7822 4.90698 
-76.9758 -91.773 4.91667 -76.985 -91.7723 4.91756 -76.9895 -91.7723 4.91791 
-77.2586 -91.7678 4.90728 -77.5415 -91.7815 4.91606 -77.5627 -91.7838 4.917 
-77.638 -91.7872 4.92303 -77.7998 -91.7963 4.93316 -77.9543 -91.8139 4.94054 
-78.1016 -91.8294 4.935 -78.1019 -91.8294 4.93499 -78.1168 -91.8313 4.93445 
-78.1204 -91.832 4.93433 -78.4144 -91.8843 4.92479 -78.4934 -91.9001 4.92235 
-78.5494 -91.914 4.9233 -78.8429 -91.9673 4.94769 -79.1575 -92.045 4.96134 
-79.2456 -92.0671 4.96425 -79.387 -92.1099 4.96964 -79.6171 -92.1786 5.0132 
-79.6922 -92.2063 5.01991 -79.7294 -92.2367 5.02043 -79.7967 -92.28 5.03573 
-79.875 -92.3254 5.0488 -80.0947 -92.4779 5.05788 -80.0954 -92.4784 5.05789 
-80.1453 -92.5229 5.05839 -80.5091 -92.8244 5.1132 -80.5098 -92.8251 5.11335 
-80.5663 -92.876 5.12544 -80.744 -93.1156 5.14522 -80.7447 -93.1165 5.14514 
-80.8262 -93.2305 5.13482 -80.9679 -93.4806 5.11549 -80.9687 -93.4821 5.11539 
-81.0583 -93.6629 5.10256 -81.2798 -94.0547 5.13771 -81.2864 -94.0675 5.13971 
-81.3567 -94.2161 5.14337 -81.4364 -94.4616 5.12728 -81.4988 -94.789 5.10158 
-81.4354 -95.0412 5.13651 -81.4143 -95.1037 5.14476 -81.2711 -95.6252 5.18739 
-81.1881 -95.8479 5.20376 -81.077 -96.1653 5.22317 -81.0017 -96.4 5.20431 
-80.8561 -96.7511 5.17221 -80.8525 -96.7611 5.17032 -80.6537 -97.2172 5.13153 
-80.6054 -97.3476 5.13121 -80.4595 -97.7379 5.16 -80.4546 -97.7564 5.16419 
-80.3572 -98.0012 5.18974 -80.2901 -98.1309 5.17849 -80.1241 -98.5128 5.15435 
-80.0232 -98.7314 5.13119 -79.9221 -98.9277 5.10582 -79.8703 -99.0501 5.09897 
-79.8364 -99.1389 5.0919 -79.8059 -99.2102 5.08692 -79.7952 -99.2419 5.0838 
-79.6743 -99.552 5.04281 -79.6122 -99.7749 5.0352 -79.5075 -100.105 4.98545 
-79.4473 -100.294 4.95825 -79.4079 -100.402 4.95489 -79.3699 -100.527 4.95198 
-79.3617 -100.55 4.95146 -79.312 -100.683 4.95025 -79.2466 -100.832 4.95308 
-79.1503 -101.096 4.95335 -79.134 -101.149 4.95386 -79.0848 -101.285 4.95051 
-79.0337 -101.465 4.95132 -78.984 -101.643 4.93768 -78.9422 -101.84 4.9341 
-78.8748 -102.071 4.92845 -78.8496 -102.188 4.92776 -78.8371 -102.233 4.92681 
-78.8261 -102.272 4.92817 -78.7816 -102.396 4.94305 -78.711 -102.553 4.95167 
-78.6885 -102.615 4.95175 -78.5372 -102.962 4.95495 -78.4239 -103.216 4.97527 
-78.3863 -103.291 4.97404 -78.3259 -103.43 4.97583 -78.3081 -103.467 4.97609 
-78.2441 -103.583 4.97713 -78.1994 -103.673 4.9682 -78.1968 -103.677 4.96793 
-78.1875 -103.694 4.96882 -78.1006 -103.87 4.9848 -78.0846 -103.907 4.98807 
-77.9944 -104.083 5.00397 -77.9435 -104.187 5.01342 -77.9106 -104.264 5.01774 
-77.7595 -104.562 5.03832 -77.7523 -104.575 5.03685 -77.6282 -104.824 5.02755 
-77.5795 -104.908 5.0282 -77.5795 -104.908 5.02821 -77.5662 -104.934 5.02898 
-77.5487 -104.966 5.02986 -77.5307 -105.002 5.03056 -77.4781 -105.092 5.02678 
-77.3571 -105.336 5.04081 -77.3451 -105.357 5.04186 -77.1766 -105.695 5.03908 
-77.0842 -105.879 5.04582 -77.0157 -106.024 5.05573 -76.991 -106.068 5.05991 
-76.9172 -106.217 5.06726 -76.8718 -106.316 5.07553 -76.856 -106.345 5.07855 
-76.7757 -106.519 5.09998 -76.7626 -106.554 5.10472 -76.6609 -106.776 5.14736 
-76.6242 -106.867 5.17233 -76.4918 -107.17 5.21929 -76.4373 -107.336 5.2429 
-76.371 -107.499 5.2715 -76.3419 -107.591 5.29199 -76.3089 -107.719 5.35126 
-76.3 -107.754 5.35342 -76.2589 -107.939 5.38789 -76.2464 -108.02 5.40578 
-76.2417 -108.054 5.41884 -76.2159 -108.209 5.41303 -74.3585 -82.2139 14.7267 
-74.377 -82.1971 14.7206 -74.504 -82.1101 14.7532 -74.594 -82.0655 14.7676 
-74.669 -82.0125 14.7811 -74.8427 -81.9198 14.805 -74.8536 -81.912 14.8059 
-75.0429 -81.8081 14.832 -75.0495 -81.8036 14.8331 -75.1024 -81.7744 14.8397 
-75.1907 -81.7169 14.8419 -75.2326 -81.6964 14.8446 -75.3436 -81.628 14.8499 
-75.5068 -81.5531 14.8628 -75.6469 -81.4637 14.8981 -75.7326 -81.4197 14.9248 
-75.8242 -81.3782 14.9539 -76.0892 -81.2503 15.0398 -76.0896 -81.25 15.0398 
-76.1397 -81.2205 15.0412 -76.2877 -81.1149 15.0739 -76.2878 -81.1149 15.0739 
-76.3088 -81.1035 15.0747 -76.4602 -81.0052 15.0905 -76.535 -80.9598 15.0961 
-76.7477 -80.8041 15.0873 -76.7956 -80.7628 15.0888 -76.883 -80.6739 15.0835 
-76.9421 -80.6257 15.0759 -77.1646 -80.4635 15.0876 -77.2229 -80.4239 15.0927 
-77.4314 -80.2855 15.1306 -77.504 -80.2284 15.1474 -77.5236 -80.2157 15.1476 
-77.7322 -80.099 15.1766 -77.7324 -80.0989 15.1765 -77.7411 -80.0949 15.1757 
-78.0528 -79.906 15.1735 -78.0646 -79.9007 15.1727 -78.2372 -79.8029 15.1605 
-78.3009 -79.7624 15.1558 -78.3195 -79.7475 15.1535 -78.5578 -79.5875 15.0971 
-78.5796 -79.5699 15.0921 -78.669 -79.5141 15.0842 -78.7701 -79.4404 15.0804 
-78.9346 -79.3082 15.084 -78.9837 -79.2588 15.0821 -78.9855 -79.2572 15.0822 
-79.0293 -79.2211 15.0765 -79.2081 -79.0907 15.0692 -79.2797 -79.0466 15.0618 
-79.3418 -79.0135 15.0468 -79.3654 -78.9979 15.0396 -79.5117 -78.912 15.0506 
-79.5119 -78.9119 15.0506 -79.5356 -78.9007 15.0507 -79.7299 -78.8263 15.0829 
-79.7793 -78.802 15.0874 -79.8135 -78.7842 15.0848 -80.181 -78.6334 15.1424 
-80.2145 -78.6151 15.1401 -80.5523 -78.4831 15.1401 -80.5704 -78.4737 15.1397 
-80.8548 -78.3586 15.1049 -81.0343 -78.2743 15.0435 -81.1483 -78.23 15.0182 
-81.238 -78.1858 14.9973 -81.2521 -78.1793 14.9979 -81.2524 -78.1791 14.9979 
-81.3121 -78.1456 15.001 -81.4877 -78.067 14.9729 -81.4895 -78.066 14.9729 
-81.5295 -78.0448 14.9731 -81.7958 -77.8754 15.0029 -81.9655 -77.7946 15.0308 
-82.0787 -77.7298 15.0075 -82.1161 -77.7113 15.0058 -82.3174 -77.6197 15.0876 
-82.3695 -77.6036 15.1074 -82.612 -77.541 15.1407 -82.6746 -77.5312 15.1457 
-82.8749 -77.4713 15.1534 -83.1979 -77.3738 15.1371 -83.3418 -77.312 15.0608 
-83.5802 -77.2084 15.0789 -83.884 -77.1105 15.0855 -83.9515 -77.0737 15.0914 
-84.1923 -76.9694 15.1202 -84.244 -76.9533 15.1261 -84.4009 -76.8943 15.1728 
-84.442 -76.8822 15.174 -84.5436 -76.8418 15.1746 -84.6516 -76.7893 15.1717 
-84.9664 -76.6783 15.144 -85.0087 -76.6577 15.1386 -85.0224 -76.65 15.1367 
-85.429 -76.4879 15.0752 -85.4519 -76.482 15.0723 -85.8023 -76.3406 15.0304 
-85.8278 -76.327 15.0294 -86.0285 -76.2473 15.0259 -86.2624 -76.1458 15.0284 
-86.4462 -76.0595 15.014 -86.4879 -76.0443 15.0112 -86.5026 -76.0373 15.0097 
-86.7626 -75.9357 15.0008 -86.8479 -75.914 14.9974 -87.1188 -75.8126 15.0054 
-87.131 -75.8062 15.0075 -87.5288 -75.6564 15.0069 -87.5708 -75.6466 15.0057 
-87.9179 -75.5154 14.9934 -87.9912 -75.4972 14.9902 -88.126 -75.4449 14.9985 
-88.3363 -75.3863 15.0123 -88.4849 -75.3428 15.0005 -88.5294 -75.3344 14.9937 
-88.6786 -75.3158 14.9674 -88.7492 -75.2998 14.9548 -88.9079 -75.2835 14.93 
-89.0811 -75.2555 14.9277 -89.4708 -75.2418 14.9598 -89.5352 -75.2477 14.9658 
-89.9223 -75.246 15.0044 -90.1948 -75.2767 15.0408 -90.2929 -75.2801 15.059 
-90.5272 -75.3143 15.0871 -90.8138 -75.3473 15.1436 -90.8349 -75.3513 15.1501 
-91.0415 -75.4054 15.2137 -91.0727 -75.4142 15.2321 -91.1058 -75.4451 15.2423 
-91.3152 -75.6993 15.3246 -91.4273 -75.8714 15.3672 -91.4869 -75.956 15.3943 
-91.6409 -76.1607 15.3881 -91.7686 -76.3832 15.3839 -91.7922 -76.4338 15.3829 
-91.8615 -76.6555 15.4156 -91.9084 -76.9483 15.4529 -91.9784 -77.3885 15.5002 
-91.9785 -77.3982 15.4947 -91.9425 -77.9111 15.6309 -91.94 -77.94 15.6334 
-91.9212 -78.0978 15.6504 -91.8943 -78.7809 15.7987 -91.8548 -79.1728 15.8344 
-91.8343 -79.2535 15.8273 -91.8137 -79.3442 15.831 -91.6415 -79.5742 15.8374 
-91.4125 -79.8319 15.8576 -91.379 -79.8723 15.8616 -91.3744 -79.8791 15.862 
-91.2105 -80.0916 15.8343 -91.0011 -80.3999 15.7519 -90.8642 -80.6139 15.6963 
-90.8091 -80.6761 15.6934 -90.7767 -80.7449 15.6926 -90.7436 -80.8366 15.6943 
-90.7214 -80.9143 15.676 -90.6718 -81.2 15.6138 -90.674 -81.474 15.4721 
-90.6342 -81.8907 15.3334 -90.6306 -82.2716 15.217 -90.6147 -82.3664 15.183 
-90.5872 -82.8005 14.9443 -90.5883 -83.132 14.7846 -90.5827 -83.1876 14.7471 
-90.6201 -83.6657 14.4548 -90.6063 -84.118 14.2473 -90.5795 -84.2355 14.2086 
-90.5636 -84.3736 14.1599 -90.5277 -84.5662 14.0603 -90.518 -84.6859 13.9751 
-90.5175 -84.6928 13.971 -90.4916 -84.8699 13.8616 -90.3954 -85.1541 13.7312 
-90.395 -85.1552 13.7309 -90.39 -85.1738 13.7156 -90.3725 -85.4093 13.4898 
-90.3603 -85.4969 13.3907 -90.3454 -85.7336 13.1427 -90.3302 -85.7968 13.0579 
-90.2638 -86.1876 12.679 -90.1196 -86.4693 12.5136 -90.0999 -86.657 12.3117 
-90.0966 -86.6915 12.2743 -90.0965 -86.6916 12.2741 -90.0942 -86.7041 12.2594 
-90.0935 -86.7052 12.2575 -89.8218 -86.9249 11.9426 -89.702 -86.9883 11.8069 
-89.4439 -87.1953 11.5809 -89.3548 -87.2555 11.5086 -89.0661 -87.4831 11.2808 
-88.8568 -87.6623 11.0403 -88.7757 -87.7396 10.938 -88.5011 -87.9338 10.6713 
-88.2783 -88.0691 10.481 -88.2311 -88.0953 10.4368 -88.0776 -88.2152 10.3158 
-87.9643 -88.2875 10.2072 -87.626 -88.4985 9.93044 -87.4876 -88.5918 9.74761 
-87.475 -88.601 9.73174 -87.4354 -88.6316 9.68561 -87.3989 -88.6581 9.61069 
[...]
POINT_DATA 1114
FIELD FieldData 3
Radius 1 1114 double
2.0869801432 2.0890781787 2.1485324507 2.1733362714 2.1862057751 2.2013913548 2.2220634811 2.2254196282 2.2529660871 
2.253617653 2.2766525352 2.2786007698 2.2961782791 2.297141196 2.3083402034 2.3101843965 2.311891673 2.3188112319 
2.3194096358 2.3244048186 2.3247779978 2.3262240937 2.3325059521 2.3332786282 2.3349038979 2.3363104716 2.3437597927 
2.3446636601 2.3482944974 2.3491234346 2.351226188 2.3622915634 2.3627204694 2.3636045941 2.3837916155 2.3838023981 
2.386487269 2.3866444981 2.3963140932 2.4007788823 2.4011262462 2.4043085803 2.4073275534 2.4075967647 2.4078097449 
2.4185526591 2.4407017117 2.4423950212 2.4471095276 2.4571306884 2.4742833747 2.4903243126 2.4903721341 2.4927153902 
2.4933247324 2.5434939099 2.5612657149 2.5724398709 2.6277656559 2.7045284237 2.7305194821 2.7750087689 2.8484528785 
2.8749018863 2.8771607303 2.8892755655 2.9030509634 2.9225334538 2.9225546026 2.9242958552 2.9871473228 2.9873111944 
3.0008032888 3.0185407137 3.0185326666 3.0175348307 3.0058237876 3.0058007982 3.0029501188 3.0576052864 3.0599786721 
3.0727722605 3.0694199751 3.058576223 2.965323753 2.940098878 2.7509096548 2.6859191582 2.600703274 2.5555945388 
2.4948674151 2.493270267 2.4298990177 2.421247953 2.3904617469 2.3898846306 2.3668052297 2.3510688104 2.33102065 
2.325081277 2.3142688287 2.3147265822 2.3158073611 2.3157003605 2.3158288979 2.3120626149 2.3170420543 2.3241412149 
2.3247391853 2.3252522328 2.3246017651 2.3246741984 2.3252808895 2.3270513032 2.3391588395 2.3426578221 2.3500390657 
2.3518623724 2.3496428055 2.3500243022 2.354219214 2.3567354808 2.3569153568 2.3568819015 2.3539144905 2.3478585088 
2.3441636058 2.3348546385 2.3350701222 2.3363249198 2.3372317121 2.3370930906 2.3352620042 2.3332971366 2.3330515078 
2.3321044041 2.3229902065 2.3208600067 2.3129362027 2.3087364463 2.3077794048 2.3114967257 2.3119421437 2.3198669245 
2.324065949 2.3240677796 2.3245236017 2.3245396835 2.3237002607 2.3195999426 2.3116602421 2.3109888898 2.3090838226 
2.3149172091 2.3196721082 2.3220422819 2.3310275701 2.3365927425 2.3377809908 2.3403680378 2.3394923659 2.3323126313 
2.329668789 2.3246952211 2.3275967469 2.3278149971 2.3254338332 2.3110373872 2.308468525 2.2878581926 2.2782706888 
2.2725021621 2.2661093998 0.95500850961 0.96582330347 1.0443157828 1.0899504406 1.127638189 1.2041724651 1.208536819 
1.2719928846 1.2741750952 1.2870328027 1.3052071922 1.3111524726 1.324788861 1.3388604009 1.353731188 1.3649209109 
1.3748430567 1.3856890717 1.3857283489 1.3905987237 1.4066642922 1.406667873 1.4075594973 1.411026552 1.4060252227 
1.4016395921 1.403058026 1.4038200809 1.4030303121 1.4111405713 1.4139086704 1.4087914074 1.4071968648 1.406204228 
1.4030162393 1.4030111532 1.4027619348 1.4010813029 1.4013054467 1.4011256285 1.4031320331 1.4032419553 1.4058570735 
1.4064748227 1.4004435759 1.3971565826 1.3980600211 1.3979093699 1.3978233347 1.3962794562 1.3975593723 1.4011596472 
1.4039055844 1.4037168567 1.3918547281 1.3918412703 1.3901725036 1.3722607264 1.3674350023 1.3645282072 1.343207512 
1.3428804659 1.3433495939 1.3441940921 1.3627280614 1.3814394995 1.3931197786 1.4048595181 1.4061965715 1.4062168283 
1.4112607556 1.4245707491 1.4247153586 1.4278573292 1.4618540356 1.492329227 1.5106973577 1.5158532342 1.5321228146 
1.53504645 1.5489677896 1.551760317 1.5511814615 1.5541123766 1.5459306128 1.5272982997 1.5357273929 1.5293345536 
1.519022441 1.5163592098 1.5069248895 1.5028785701 1.48632935 1.4671485093 1.430274032 1.4260010257 1.4238952488 
1.3873760598 1.3867679703 1.3782431933 1.3785366798 1.3794804411 1.3716365136 1.3612514628 1.3592647865 1.3575357767 
1.3328465551 1.3237842315 1.3066066457 1.3057729164 1.2983947931 1.3003594571 1.3159910093 1.3236075686 1.3341645561 
1.3560710097 1.3698452972 1.3735244937 1.3856270016 1.3895775229 1.3991435798 1.4117852446 1.4689873569 1.4798512819 
1.567239504 1.6557006631 1.6863987669 1.777862186 1.8801350795 1.8888861195 1.9746220635 1.9859042303 1.9819892633 
1.9415038859 1.9243889292 1.9143297332 1.898144746 1.8848916127 1.882086249 1.855690915 1.8244833619 1.7885484628 
1.7880748127 1.7707445288 1.7707975163 1.7695964005 1.8979840402 2.0101941112 2.0286746838 2.0461861965 2.0115509898 
1.9897494291 1.9867019857 1.9862003216 1.9647094418 1.9286045748 1.9112904672 1.9058316144 1.8841798651 1.8521768807 
1.8196363703 1.708197499 1.5993018983 1.4925550745 1.4046983392 1.3935828331 1.3812721322 1.4112113693 1.4169476188 
1.4981645859 1.6464610679 1.6881197716 1.7331491619 1.8046004248 1.8413162338 1.8430556844 1.895421432 1.9770192736 
1.977302348 1.9838099142 2.0720622067 2.1117913283 2.2199378848 2.2496579035 2.3878069935 2.4849591206 2.5506261268 
2.5627512371 2.5628075141 2.5674409892 2.5674158743 2.5079890599 2.4838706578 2.4120801235 2.3955905493 2.3485760004 
2.3243116916 2.3268359061 2.3037194609 2.3044185766 2.3034851837 2.2815261077 2.2642427386 2.2533258939 2.2530422696 
2.2535291947 2.2560056571 2.2565149123 2.2579968273 2.2706922663 2.2808370942 2.2913784662 2.306612322 2.3097423356 
2.3101976308 2.3142856158 2.3186107645 2.3360978632 2.3803967286 2.4089394602 2.4447808515 2.4796030076 2.6324724907 
2.6335941758 2.8268469762 2.8676045633 2.8720820365 2.942071686 3.1127637825 3.1278058406 3.2304373635 3.2995288918 
3.3125160149 3.3913604512 3.3952057356 3.4384428469 3.5157599467 3.6204401022 3.6489103249 3.7658390692 3.8093325214 
3.8479180209 3.8525142097 3.8318487132 3.8134559936 3.7588983755 3.7466080591 3.7171057168 3.6781604051 3.6662134069 
3.6307432232 3.3553368115 3.3542520224 3.1471718595 2.7624497725 2.7586372299 2.5804746883 2.5475028322 2.5069462236 
2.5064460897 2.5028960936 2.4330098595 2.4328230644 2.4213351673 2.3938278767 2.3693446538 2.36842353 2.3622066538 
2.3192127026 2.3170312446 2.2929624364 2.3010121217 2.2986022571 2.2979339825 2.2971418969 2.3092428047 2.3097616499 
2.3161236455 2.3186169141 2.3186172561 2.3187024219 2.316549768 2.3101761485 2.3189673975 2.3190489613 2.3259018224 
2.3313176865 2.3405228711 2.3433884703 2.3454192819 2.3502152975 2.3498432987 2.3495635322 2.346754233 2.3460694325 
2.3308837618 2.3300070926 2.332300918 2.3362132336 2.3374162176 2.3371878057 2.3360947027 2.3354629425 2.3205499214 
2.3205262 2.3077350128 2.3114967257 2.3119421437 2.3198669245 2.324065949 2.3240677796 2.3245236017 2.3245396835 
2.3237002607 2.3195999426 2.3116602421 2.3109888898 2.3090838226 2.3149172091 2.3196721082 2.3220422819 2.3310275701 
2.3365927425 2.3377809908 2.3403680378 2.3394923659 2.3323126313 2.329668789 2.3246952211 2.3275967469 2.3278149971 
2.3254338332 2.3110373872 2.308468525 2.2878581926 2.2782706888 2.2725021621 2.2661093998 1.0158084527 1.1040605462 
1.1109271946 1.1383381273 1.1394371874 1.1514909659 1.1954651589 1.2100814954 1.2294236495 1.267383541 1.3008256061 
1.3096943653 1.311196303 1.3205229289 1.3309912719 1.3392358287 1.3406412335 1.3559978608 1.3610863317 1.3830478071 
1.389121928 1.3892540574 1.3943011271 1.3931911519 1.3906698315 1.3905510941 1.3899345159 1.3917909348 1.3933748742 
1.3965183584 1.3992385512 1.400909596 1.400906264 1.4006319327 1.4001364965 1.3810205797 1.3785604109 1.3633292937 
1.3634040575 1.3496581655 1.3440627803 1.3376010497 1.3261793604 1.3269181594 1.3260804062 1.3206067999 1.3132845293 
1.3148849833 1.3149207479 1.3131314021 1.3102237938 1.3208144914 1.3314096123 1.3514185965 1.351723508 1.3386997313 
1.3315547465 1.3228246281 1.2978574839 1.2844469237 1.268314957 1.2552949909 1.2491799665 1.2491696327 1.248318821 
1.248281442 1.2389740841 1.2391757391 1.243134306 1.2433475694 1.2327645829 1.2464605612 1.2528470009 1.2670777057 
1.2736173809 1.3414617043 1.3837540528 1.3977345588 1.4394167017 1.5762749678 1.7102154023 1.7336736353 1.8157565691 
1.9087085299 1.9389929803 1.9438459796 2.1068040678 2.1590720524 2.1409368429 1.9626212982 1.9529817047 1.6923856469 
1.5894888429 1.5363555049 1.4035450551 1.3960287822 1.3812721322 1.4112113693 1.4169476188 1.4981645859 1.6464610679 
1.6881197716 1.7331491619 1.8046004248 1.8413162338 1.8430556844 1.895421432 1.9770192736 1.977302348 1.9838099142 
2.0720622067 2.1117913283 2.2199378848 2.2496579035 2.3878069935 2.4849591206 2.5506261268 2.5627512371 2.5628075141 
2.5674409892 2.5674158743 2.5079890599 2.4838706578 2.4120801235 2.3955905493 2.3485760004 2.3243116916 2.3268359061 
2.3037194609 2.3044185766 2.3034851837 2.2815261077 2.2642427386 2.2533258939 2.2530422696 2.2535291947 2.2560056571 
2.2565149123 2.2579968273 2.2706922663 2.2808370942 2.2913784662 2.306612322 2.3097423356 2.3101976308 2.3142856158 
2.3186107645 2.3360978632 2.3803967286 2.4089394602 2.4447808515 2.4796030076 2.6324724907 2.6335941758 2.8268469762 
2.8676045633 2.8720820365 2.942071686 3.1127637825 3.1278058406 3.2304373635 3.2995288918 3.3125160149 3.3913604512 
3.3952057356 3.4384428469 3.5157599467 3.6204401022 3.6489103249 3.7658390692 3.8093325214 3.8479180209 3.8525142097 
3.8318487132 3.8134559936 3.7588983755 3.7466080591 3.7171057168 3.6781604051 3.6662134069 3.6307432232 3.3553368115 
3.3542520224 3.1471718595 2.7624497725 2.7586372299 2.5804746883 2.5475028322 2.5069462236 2.5064460897 2.5028960936 
2.4330098595 2.4328230644 2.4213351673 2.3938278767 2.3693446538 2.36842353 2.3622066538 2.3192127026 2.3170312446 
2.2929624364 2.3010121217 2.2986022571 2.2979339825 2.2971418969 2.3092428047 2.3097616499 2.3161236455 2.3186169141 
2.3186172561 2.3187024219 2.316549768 2.3101761485 2.3189673975 2.3190489613 2.3259018224 2.3313176865 2.3405228711 
2.3433884703 2.3454192819 2.3502152975 2.3498432987 2.3495635322 2.346754233 2.3460694325 2.3308837618 2.3300070926 
2.332300918 2.3362132336 2.3374162176 2.3371878057 2.3360947027 2.3354629425 2.3205499214 2.3205262 2.3077350128 
2.3114967257 2.3119421437 2.3198669245 2.324065949 2.3240677796 2.3245236017 2.3245396835 2.3237002607 2.3195999426 
2.3116602421 2.3109888898 2.3090838226 2.3149172091 2.3196721082 2.3220422819 2.3310275701 2.3365927425 2.3377809908 
2.3403680378 2.3394923659 2.3323126313 2.329668789 2.3246952211 2.3275967469 2.3278149971 2.3254338332 2.3110373872 
2.308468525 2.2878581926 2.2782706888 2.2725021621 2.2661093998 1.8111727374 1.835381254 1.9192058886 2.0666707949 
2.0907872033 2.0907908337 2.0916948123 2.1045984049 2.1218707626 2.1590235141 2.1924645453 2.2228481454 2.2434871657 
2.249856402 2.2919217754 2.2944716242 2.3107455142 2.3417370555 2.3431916955 2.3730692331 2.4026003381 2.4112051425 
2.4442979476 2.4622786973 2.4672623774 2.4915871688 2.4915991595 2.4945848348 2.4949114981 2.5008668215 2.5063265208 
2.5063319072 2.5076731275 2.5076692642 2.5071902151 2.5038030658 2.5048284 2.5025835323 2.5022616022 2.4832988037 
2.4663109846 2.4641129255 2.4505131156 2.4363652921 2.4234106122 2.4159548238 2.4111278131 2.4087746268 2.4082748895 
2.4092330149 2.413165322 2.4215354114 2.4326026072 2.4357511693 2.4357724085 2.4558609478 2.4757427734 2.4874975501 
2.4912059646 2.4965258471 2.4965304138 2.4970966892 2.4970747239 2.4961814672 2.4959462637 2.4959575179 2.4968841137 
2.4957396038 2.4873342738 2.4871491127 2.4756781228 2.4540089352 2.4345476991 2.4308428303 2.4133822131 2.407419482 
2.398881192 2.3974264075 2.3963441281 2.3981648273 2.4044710283 2.4110252505 2.4216519025 2.4300527752 2.4309271383 
2.4496293806 2.4574251569 2.4586210624 2.4513749841 2.4511822675 2.4512346215 2.4501467354 2.4441678204 2.423949901 
2.4084357183 2.4080944289 2.4006742265 2.4049997535 2.4531460006 2.4548736522 2.5121265187 2.5234670901 2.5456183786 
2.6083358515 2.6299364772 2.6651453051 2.7294273089 2.8034223482 2.8514451566 2.9330623897 2.9545475946 2.977279419 
3.0966935429 3.0968012017 3.1236082617 3.1236377504 3.1250826936 3.1250901063 3.1269358744 3.1587905891 3.1593241157 
3.1736107738 3.1740452107 3.2822199954 3.2896139888 3.2998192589 3.4108662953 3.4183913525 3.4497917099 3.4500293339 
3.5091977065 3.509801713 3.5469481071 3.5543604108 3.6859422961 3.6886224498 3.6910025667 3.8116133476 3.8116960791 
3.8322962267 3.8541075259 3.884525896 3.8975096325 3.9012063307 3.9136519665 3.9531520567 3.9537684879 3.9951505433 
3.9902550053 3.9818033383 3.9746433427 3.9715861072 3.9693957482 3.9589885337 3.9589746213 3.9572494831 3.945643243 
3.945639008 3.9445844982 3.9445421442 3.9516489024 3.9519386354 3.9654756559 3.9696040011 3.9700386954 3.9826710222 
3.9199578474 3.8756208153 3.8341976136 3.8134317065 3.8080186639 3.7804408802 3.7787087338 3.7689552703 3.7717349567 
3.7738279555 3.8059224496 3.8069395053 3.8208260923 3.8457285048 3.8579063949 3.8751926008 3.8753689929 3.8862171105 
3.8862252495 3.8882518391 3.9016339353 3.9017099979 3.9079724853 3.5155160753 3.0312174851 2.9089565018 2.8182319027 
2.7779849022 2.7142708895 2.7141589783 2.6862930727 2.6055306256 2.5500722778 2.5489339322 2.54226115 2.5399773691 
2.5464700657 2.5471270294 2.5549649755 2.5653811223 2.5774689374 2.5948487032 2.6013618935 2.6022509688 2.620260739 
2.6305582091 2.6485708617 2.6977614145 2.6978268737 2.7141262094 2.7435735677 2.8291401498 2.8446404134 2.874120999 
2.9214443263 3.0028636883 3.0028770978 3.0062160626 3.0938740805 3.1371021907 3.1549379009 3.2247752394 3.2291638739 
3.2968309436 3.3875354499 3.4283552353 3.5122386 3.6070176902 3.6076712207 3.6086395435 3.6230270062 3.6478924551 
3.6511786846 3.6679450335 3.7105993902 3.7225787344 3.7233714969 3.7250357655 3.7285712622 3.7181391258 3.7033404346 
3.6440687929 3.3553368115 3.3542520224 3.1471718595 2.7624497725 2.7586372299 2.5804746883 2.5475028322 2.5069462236 
2.5064460897 2.5028960936 2.4330098595 2.4328230644 2.4213351673 2.3938278767 2.3693446538 2.36842353 2.3622066538 
2.3192127026 2.3170312446 2.2929624364 2.3010121217 2.2986022571 2.2979339825 2.2971418969 2.3092428047 2.3097616499 
2.3161236455 2.3186169141 2.3186172561 2.3187024219 2.316549768 2.3101761485 2.3189673975 2.3190489613 2.3259018224 
2.3313176865 2.3405228711 2.3433884703 2.3454192819 2.3502152975 2.3498432987 2.3495635322 2.346754233 2.3460694325 
2.3308837618 2.3300070926 2.332300918 2.3362132336 2.3374162176 2.3371878057 2.3360947027 2.3354629425 2.3205499214 
2.3205262 2.3077350128 2.3114967257 2.3119421437 2.3198669245 2.324065949 2.3240677796 2.3245236017 2.3245396835 
2.3237002607 2.3195999426 2.3116602421 2.3109888898 2.3090838226 2.3149172091 2.3196721082 2.3220422819 2.3310275701 
2.3365927425 2.3377809908 2.3403680378 2.3394923659 2.3323126313 2.329668789 2.3246952211 2.3275967469 2.3278149971 
2.3254338332 2.3110373872 2.308468525 2.2878581926 2.2782706888 2.2725021621 2.2661093998 
EdgeArray 2 1114 int
13326 13326 13351 13333 14326 14326 25690 10588 25690 
26062 26062 26064 26058 26058 14349 14349 10188 14341 
10188 26066 10594 3675 10204 1084 14365 14365 14363 
14364 14375 1425 14376 14375 14378 1426 14380 14381 
14380 14379 10209 14385 14385 10218 10218 2993 14398 
14399 14398 14396 13928 14396 14400 13956 14400 14409 
14407 14409 14408 14406 3172 10230 14750 1085 3379 
3497 3379 3388 10232 3388 13942 13942 25782 13942 
25782 25782 25781 25782 25781 25781 25779 25779 22781 
25379 13940 9861 25789 9861 25791 3002 25791 22800 
22800 22800 243 22779 243 25412 9875 1102 22804 
23643 23643 25809 25809 25809 25811 25809 25811 25811 
22817 25811 22817 22817 3382 3382 23055 24461 3177 
3177 22830 22830 22821 22834 9873 3006 14012 9873 
22835 22835 23338 23338 14019 25439 25009 25439 24502 
24502 22798 24502 22798 22798 14002 14002 22849 14002 
22849 22849 14016 14016 25795 14016 25795 25795 25010 
25010 1272 25010 1272 1272 824 24517 824 25442 
3336 25442 1100 26120 1360 26122 15536 15536 13574 
13574 14476 15826 15826 15825 13932 15825 14011 14011 
26124 26124 26312 13567 1675 1675 26310 26310 26492 
26492 26497 26490 3947 3947 26674 16412 26678 26678 
26829 1788 26829 22990 25729 1603 26682 1603 25725 
25726 16316 25726 27040 16313 15704 15704 17057 17057 
27309 27309 17051 27030 17051 1461 1461 3998 3998 
17038 4002 3279 3353 27734 17706 27734 28581 28581 
28993 28993 27732 27732 28996 27330 29285 18473 18177 
29286 18177 18468 18468 18468 29540 29542 18469 18469 
18470 28524 29784 29784 18767 2135 18766 29802 18475 
29799 19056 30041 30043 17341 19033 19027 4497 19033 
28855 4497 29181 17702 4673 2120 25233 4673 25233 
19335 19335 29184 2594 2594 19620 30029 4133 4133 
30516 30516 30518 30516 30518 30518 29416 29420 29419 
29419 19597 19597 30509 30509 30510 19589 30781 30781 
30782 30789 30763 30789 30788 30783 4636 30783 30786 
29915 4784 4823 2513 28662 30787 29678 31056 31054 
30159 30159 30160 30160 19189 20150 20136 30155 30400 
2533 31266 31266 30661 30663 30663 30652 30652 31277 
31277 31277 30946 30946 36120 36120 36119 36119 36126 
36111 36126 35954 8117 23334 35257 7718 2951 35252 
36130 35004 3282 36138 36137 5858 5858 34998 34748 
35948 35002 23421 8242 3376 34756 35745 35958 34756 
35963 35963 35764 35764 34761 35764 34761 34761 44052 
44052 45669 44052 45669 45669 45671 45671 45664 35773 
45679 45679 45680 43440 7528 7528 43760 5570 45114 
45114 45112 45112 43770 34227 43436 43436 45119 5629 
45117 45117 45118 45117 45118 45118 43443 43443 43442 
35538 45139 5509 45141 45138 44778 45138 43433 44775 
44773 44784 7954 6963 44785 7954 7431 44786 34236 
7832 42835 34236 42835 7429 44472 44474 44478 7650 
44479 44473 44479 5587 44476 44476 35095 44476 35095 
35095 8125 44486 44485 44486 44485 44487 7744 7744 
44493 44494 42847 5592 5592 33647 33657 33657 42852 
33264 42355 42853 42568 42853 42568 42568 5427 42568 
5427 5427 44185 44185 44186 44185 44186 44186 42569 
42569 7376 7376 42573 42573 42353 42353 33267 33267 
246 34893 34875 33273 42358 3158 42374 42374 42371 
42371 34900 34900 42391 42384 42382 42380 42383 42378 
42219 33282 33282 42222 7509 7509 34663 42225 7339 
5727 34671 34671 43600 43600 43587 43601 43588 43587 
43590 43592 43592 43591 42100 42240 42100 7303 43625 
43625 43620 43620 34437 34437 43296 33046 43294 43293 
5188 5055 33038 43307 43306 43306 32953 34120 43323 
34105 34114 42108 33065 42111 7461 5526 2726 42015 
42014 42014 2902 34122 7312 1807 32957 32959 33807 
42034 43012 7463 33806 43015 43019 43021 43020 43019 
33805 42021 42033 7465 42033 32918 42151 43024 43027 
43024 43027 43026 43026 42118 42118 42118 42149 5374 
42051 33256 42054 42051 7519 7519 7378 42548 42810 
7483 42824 42826 42311 42311 34489 34489 43431 43431 
43732 43732 34134 34134 34502 34503 34502 43717 34730 
34730 32946 32946 33820 33820 5182 5182 34937 5730 
5730 35635 35636 35439 35636 34681 35630 35631 35633 
35633 35869 35867 35868 35868 35862 35861 35861 34680 
34680 34680 35162 35162 7392 7392 35627 43653 35627 
35859 36186 35778 46150 46150 45867 45867 34737 46151 
36194 36194 46332 46332 46331 5923 46476 5922 36338 
36338 36339 36330 36330 36426 35789 35789 6061 36319 
6061 6061 7790 27 5551 5936 36560 5936 34871 
34871 5890 5890 36295 5315 22343 22343 36760 36937 
36937 36937 37302 36937 37302 37302 37301 37301 3141 
3141 22935 22935 5486 36297 5203 5486 34593 34593 
23207 23207 36685 5817 22932 22932 22509 22509 22362 
6302 2955 2955 22517 22517 22608 22608 23119 5791 
5791 23117 23117 2952 22600 22607 22594 22600 23445 
23445 3055 5643 3024 3055 23122 23122 23448 23447 
23446 23448 23446 23446 23746 23746 23747 23747 23748 
23748 24104 24104 6738 6647 24107 9591 24113 24113 
3196 5638 24602 24603 24601 24602 24594 24601 3385 
810 24613 23105 22735 24597 22735 25538 2820 25538 
25531 2820 25528 25531 25532 25526 3401 9937 22877 
108 3518 3518 25926 25926 25928 3866 22878 25928 
3522 24485 24485 26400 26401 26401 26404 26404 26587 
26587 26569 3827 25866 25457 25855 25859 25411 25855 
25411 3520 25852 25852 26127 15528 26128 26128 1535 
23010 1535 13572 23317 23317 14743 14743 3752 3752 
3688 26317 16108 16108 26319 26319 26320 26319 26320 
26320 25757 26689 3371 26688 26688 3949 3949 25716 
26677 3951 1619 16411 25698 25698 23305 23305 25712 
27039 27039 27040 3961 27040 15704 16730 27027 27031 
17483 17483 4405 4405 3263 4405 3263 3263 25733 
16601 16944 16944 28989 28989 28986 28988 28967 27735 